 @nid05494 has created process number                                0     16606
 @nid05494 has created process number                                1     16607
 @nid05494 has created process number                                2     16608
 @nid05494 has created process number                                3     16609
 @nid05494 has created process number                                4     16610
 @nid05494 has created process number                                5     16611
 @nid05494 has created process number                                6     16612
 @nid05494 has created process number                                7     16613
 @nid05494 has created process number                                8     16614
 @nid05494 has created process number                                9     16615
 @nid05494 has created process number                               10     16616
 @nid05494 has created process number                               11     16617
 @nid05494 has created process number                               12     16618
 @nid05494 has created process number                               13     16619
 @nid05494 has created process number                               14     16620
 @nid05494 has created process number                               15     16621
 @nid05494 has created process number                               16     16622
 @nid05494 has created process number                               17     16623
 @nid05494 has created process number                               18     16624
 @nid05494 has created process number                               19     16625
 @nid05494 has created process number                               20     16626
 @nid05494 has created process number                               21     16627
 @nid05494 has created process number                               22     16628
 @nid05494 has created process number                               23     16629

  **** **** ******  **  PROGRAM STARTED AT               2013-07-29 23:04:57.399
 ***** ** ***  *** **   PROGRAM STARTED ON                              nid05494
 **    ****   ******    PROGRAM STARTED BY                                      
 ***** **    ** ** **   PROGRAM PROCESS ID                                 16606
  **** **  *******  **  PROGRAM STARTED IN /global/scratch/sd/wonsever/nacl-p1.g
                                           eopt

 CP2K| version string:                    CP2K version 2.1.534 (Release Version)
 CP2K| is freely available from                          http://cp2k.berlios.de/
 CP2K| Program compiled at                          Sun Feb 20 18:20:32 PST 2011
 CP2K| Program compiled on                                              hopper01
 CP2K| Program compiled for                                    CRAY-XE6-gfortran
 CP2K| Last CVS entry                                                           
 CP2K| Input file name                                nacl-p1.1x1x1.298K.cp2k.in

 GLOBAL| Force Environment number                                              1
 GLOBAL| Basis set file name            /global/u2/w/wonsever/cp2k/webcp2k/cp2k/
 GLOBAL| Geminal file name                                         BASIS_GEMINAL
 GLOBAL| Potential file name            /global/u2/w/wonsever/cp2k/webcp2k/cp2k/
 GLOBAL| MM Potential file name                                     MM_POTENTIAL
 GLOBAL| Coordinate file name                                      __STD_INPUT__
 GLOBAL| Method name                                                        CP2K
 GLOBAL| Project name                                         nacl-p1.1x1x1.298K
 GLOBAL| Preferred FFT library                                             FFTW3
 GLOBAL| Run type                                                             MD
 GLOBAL| All-to-all communication in single precision                          F
 GLOBAL| FFTs using library dependent lengths                                  F
 GLOBAL| Global print level                                               MEDIUM
 GLOBAL| Total number of message passing processes                            24
 GLOBAL| Number of threads for this process                                    1
 GLOBAL| This output is from process                                           0

 MEMORY| system memory details [Kb]
 MEMORY|                        rank 0           min           max       average
 MEMORY| MemTotal             33083552      33083552      33083552      33083552
 MEMORY| MemFree              31094580      31094580      31094580      31094580
 MEMORY| Buffers                     0             0             0             0
 MEMORY| Cached                  81972         81972         81972         81972
 MEMORY| Slab                   220860        220860        220860        220860
 MEMORY| SReclaimable             3672          3672          3672          3672
 MEMORY| MemLikelyFree        31180224      31180224      31180224      31180224


 *** Fundamental physical constants (SI units) ***

 *** Literature: B. J. Mohr and B. N. Taylor,
 ***             CODATA recommended values of the fundamental physical
 ***             constants: 2006, Web Version 5.1
 ***             http://physics.nist.gov/constants

 Speed of light in vacuum [m/s]                             2.99792458000000E+08
 Magnetic constant or permeability of vacuum [N/A**2]       1.25663706143592E-06
 Electric constant or permittivity of vacuum [F/m]          8.85418781762039E-12
 Planck constant (h) [J*s]                                  6.62606896000000E-34
 Planck constant (h-bar) [J*s]                              1.05457162825177E-34
 Elementary charge [C]                                      1.60217648700000E-19
 Electron mass [kg]                                         9.10938215000000E-31
 Electron g factor [ ]                                     -2.00231930436220E+00
 Proton mass [kg]                                           1.67262163700000E-27
 Fine-structure constant                                    7.29735253760000E-03
 Rydberg constant [1/m]                                     1.09737315685270E+07
 Avogrado constant [1/mol]                                  6.02214179000000E+23
 Boltzmann constant [J/K]                                   1.38065040000000E-23
 Atomic mass unit [kg]                                      1.66053878200000E-27
 Bohr radius [m]                                            5.29177208590000E-11

 *** Conversion factors ***

 [u] -> [a.u.]                                              1.82288848426455E+03
 [Angstrom] -> [Bohr] = [a.u.]                              1.88972613288564E+00
 [a.u.] = [Bohr] -> [Angstrom]                              5.29177208590000E-01
 [a.u.] -> [s]                                              2.41888432650478E-17
 [a.u.] -> [fs]                                             2.41888432650478E-02
 [a.u.] -> [J]                                              4.35974393937059E-18
 [a.u.] -> [K]                                              3.15774647902944E+05
 [a.u.] -> [kJ/mol]                                         2.62549961709828E+03
 [a.u.] -> [kcal/mol]                                       6.27509468713739E+02
 [a.u.] -> [Pa]                                             2.94210107994716E+13
 [a.u.] -> [bar]                                            2.94210107994716E+08
 [a.u.] -> [atm]                                            2.90362800883016E+08
 [a.u.] -> [eV]                                             2.72113838565563E+01
 [a.u.] -> [Hz]                                             6.57968392072181E+15
 [a.u.] -> [1/cm] (wave numbers)                            2.19474631370540E+05
 [a.u./Bohr**2] -> [1/cm]                                   5.14048714338585E+03
 

 CELL| Volume [angstrom^3]:                                               64.000
 CELL| Vector a [angstrom]:       4.000     0.000     0.000    |a| =       4.000
 CELL| Vector b [angstrom]:       0.000     4.000     0.000    |b| =       4.000
 CELL| Vector c [angstrom]:       0.000     0.000     4.000    |c| =       4.000
 CELL| Angle (b,c), alpha [degree]:                                       90.000
 CELL| Angle (a,c), beta  [degree]:                                       90.000
 CELL| Angle (a,b), gamma [degree]:                                       90.000

 CELL_REF| Volume [angstrom^3]:                                           64.000
 CELL_REF| Vector a [angstrom     4.000     0.000     0.000    |a| =       4.000
 CELL_REF| Vector b [angstrom     0.000     4.000     0.000    |b| =       4.000
 CELL_REF| Vector c [angstrom     0.000     0.000     4.000    |c| =       4.000
 CELL_REF| Angle (b,c), alpha [degree]:                                   90.000
 CELL_REF| Angle (a,c), beta  [degree]:                                   90.000
 CELL_REF| Angle (a,b), gamma [degree]:                                   90.000

 CELL_TOP| Volume [angstrom^3]:                                           64.000
 CELL_TOP| Vector a [angstrom     4.000     0.000     0.000    |a| =       4.000
 CELL_TOP| Vector b [angstrom     0.000     4.000     0.000    |b| =       4.000
 CELL_TOP| Vector c [angstrom     0.000     0.000     4.000    |c| =       4.000
 CELL_TOP| Angle (b,c), alpha [degree]:                                   90.000
 CELL_TOP| Angle (a,c), beta  [degree]:                                   90.000
 CELL_TOP| Angle (a,b), gamma [degree]:                                   90.000

 GENERATE|  Preliminary Number of Bonds generated:                             0
 GENERATE|  Achieved consistency in connectivity generation.
 GENERATE|  Number of Bonds generated:                                         0
 GENERATE|  Preliminary Number of Bends generated:                             0
 GENERATE|  Number of Bends generated:                                         0
 GENERATE|  Number of UB generated:                                            0
 GENERATE|  Preliminary Number of Torsions generated:                          0
 GENERATE|  Number of Torsions generated:                                      0
 GENERATE|  Number of Impropers generated:                                     0
 GENERATE|  Number of 1-4 interactions generated:                              0

 *******************************************************************************
 *******************************************************************************
 **                                                                           **
 **     #####                         ##              ##                      **
 **    ##   ##            ##          ##              ##                      **
 **   ##     ##                       ##            ######                    **
 **   ##     ##  ##   ##  ##   #####  ##  ##   ####   ##    #####    #####    **
 **   ##     ##  ##   ##  ##  ##      ## ##   ##      ##   ##   ##  ##   ##   **
 **   ##  ## ##  ##   ##  ##  ##      ####     ###    ##   ######   ######    **
 **    ##  ###   ##   ##  ##  ##      ## ##      ##   ##   ##       ##        **
 **     #######   #####   ##   #####  ##  ##  ####    ##    #####   ##        **
 **           ##                                                    ##        **
 **                                                                           **
 **                                                ... make the atoms dance   **
 **                                                                           **
 **            Copyright (C) by CP2K Developers Group (2000 - 2010)           **
 **                                                                           **
 *******************************************************************************

 DFT| Spin restricted Kohn-Sham (RKS) calculation                            RKS
 DFT| Multiplicity                                                             1
 DFT| Number of spin states                                                    1
 DFT| Charge                                                                   0
 DFT| Self-interaction correction (SIC)                                       NO
 DFT| Cutoffs: density                                              1.000000E-10
 DFT|          gradient                                             1.000000E-10
 DFT|          tau                                                  1.000000E-10
 DFT|          cutoff_smoothing_range                               0.000000E+00
 DFT| XC density smoothing                                                  NONE
 DFT| XC derivatives                                                          PW
 FUNCTIONAL| ROUTINE=NEW
 FUNCTIONAL| PBE:
 FUNCTIONAL| J.P.Perdew, K.Burke, M.Ernzerhof, Phys. Rev. Letter, vol. 77, n 18,
 FUNCTIONAL|  pp. 3865-3868, (1996){spin unpolarized}

 QS| Method:                                                                 GPW
 QS| Density plane wave grid type                        NON-SPHERICAL FULLSPACE
 QS| Number of grid levels:                                                    4
 QS| Density cutoff [a.u.]:                                                160.0
 QS| Multi grid cutoff [a.u.]: 1) grid level                               160.0
 QS|                           2) grid level                                53.3
 QS|                           3) grid level                                17.8
 QS|                           4) grid level                                 5.9
 QS| Grid level progression factor:                                          3.0
 QS| Relative density cutoff [a.u.]:                                        15.0
 QS| Consistent realspace mapping and integration 
 QS| Interaction thresholds: eps_pgf_orb:                                1.0E-06
 QS|                         eps_filter_matrix:                          0.0E+00
 QS|                         eps_core_charge:                            1.0E-14
 QS|                         eps_rho_gspace:                             1.0E-12
 QS|                         eps_rho_rspace:                             1.0E-12
 QS|                         eps_gvg_rspace:                             1.0E-06
 QS|                         eps_ppl:                                    1.0E-02
 QS|                         eps_ppnl:                                   1.0E-08


 ATOMIC KIND INFORMATION

  1. Atomic kind: Na                                    Number of atoms:       4

     Orbital basis set information for                                  DZVP-GTH

       Number of orbital shell sets:                                           2
       Number of orbital shells:                                               6
       Number of primitive Cartesian functions:                                7
       Number of Cartesian basis functions:                                   15
       Number of spherical basis functions:                                   14

       Normalised Cartesian orbitals:

                        Set   Shell   Orbital            Exponent    Coefficient

                          1       1    2s               17.669838      -0.836812
                                                         6.907066      -0.196111
                                                         2.609860       0.565786
                                                         0.964955       0.414346
                                                         0.340035       0.055751
                                                         0.043249      -0.000116

                          1       2    3s               17.669838       0.166431
                                                         6.907066       0.029981
                                                         2.609860      -0.107880
                                                         0.964955      -0.151736
                                                         0.340035      -0.009555
                                                         0.043249       0.070219

                          1       3    4s               17.669838       0.000000
                                                         6.907066       0.000000
                                                         2.609860       0.000000
                                                         0.964955       0.000000
                                                         0.340035       0.000000
                                                         0.043249       0.067591

                          1       4    3px              17.669838       4.089739
                                                         6.907066       3.486080
                                                         2.609860       1.780179
                                                         0.964955       0.534706
                                                         0.340035       0.066933
                                                         0.043249       0.000162
                          1       4    3py              17.669838       4.089739
                                                         6.907066       3.486080
                                                         2.609860       1.780179
                                                         0.964955       0.534706
                                                         0.340035       0.066933
                                                         0.043249       0.000162
                          1       4    3pz              17.669838       4.089739
                                                         6.907066       3.486080
                                                         2.609860       1.780179
                                                         0.964955       0.534706
                                                         0.340035       0.066933
                                                         0.043249       0.000162

                          1       5    4px              17.669838       0.000000
                                                         6.907066       0.000000
                                                         2.609860       0.000000
                                                         0.964955       0.000000
                                                         0.340035       0.000000
                                                         0.043249       0.028113
                          1       5    4py              17.669838       0.000000
                                                         6.907066       0.000000
                                                         2.609860       0.000000
                                                         0.964955       0.000000
                                                         0.340035       0.000000
                                                         0.043249       0.028113
                          1       5    4pz              17.669838       0.000000
                                                         6.907066       0.000000
                                                         2.609860       0.000000
                                                         0.964955       0.000000
                                                         0.340035       0.000000
                                                         0.043249       0.028113

                          2       1    3dx2              0.097300       0.027900
                          2       1    3dxy              0.097300       0.048325
                          2       1    3dxz              0.097300       0.048325
                          2       1    3dy2              0.097300       0.027900
                          2       1    3dyz              0.097300       0.048325
                          2       1    3dz2              0.097300       0.027900

     Potential information for                                        GTH-PBE-q9

       Description:                       Goedecker-Teter-Hutter pseudopotential
                                           Goedecker et al., PRB 54, 1703 (1996)
                                          Hartwigsen et al., PRB 58, 3641 (1998)
                                                      Krack, TCA 114, 145 (2005)

       Gaussian exponent of the core charge distribution:               8.937631
       Electronic configuration (s p d ...):                               3   6

       Parameters of the local part of the GTH pseudopotential:

                          rloc        C1          C2          C3          C4
                        0.236523    0.295105   -0.913885

       Parameters of the non-local part of the GTH pseudopotential:

                   l      r(l)      h(i,j,l)

                   0    0.143560   34.601492
                   1    0.129932  -14.277462

  2. Atomic kind: Cl                                    Number of atoms:       4

     Orbital basis set information for                                  DZVP-GTH

       Number of orbital shell sets:                                           2
       Number of orbital shells:                                               5
       Number of primitive Cartesian functions:                                5
       Number of Cartesian basis functions:                                   14
       Number of spherical basis functions:                                   13

       Normalised Cartesian orbitals:

                        Set   Shell   Orbital            Exponent    Coefficient

                          1       1    3s                2.232176       0.493002
                                                         1.378774      -0.112422
                                                         0.426490      -0.312124
                                                         0.136667      -0.050863

                          1       2    4s                2.232176       0.000000
                                                         1.378774       0.000000
                                                         0.426490       0.000000
                                                         0.136667       0.160198

                          1       3    4px               2.232176       0.604907
                                                         1.378774      -0.624356
                                                         0.426490      -0.284012
                                                         0.136667      -0.046207
                          1       3    4py               2.232176       0.604907
                                                         1.378774      -0.624356
                                                         0.426490      -0.284012
                                                         0.136667      -0.046207
                          1       3    4pz               2.232176       0.604907
                                                         1.378774      -0.624356
                                                         0.426490      -0.284012
                                                         0.136667      -0.046207

                          1       4    5px               2.232176       0.000000
                                                         1.378774       0.000000
                                                         0.426490       0.000000
                                                         0.136667       0.118446
                          1       4    5py               2.232176       0.000000
                                                         1.378774       0.000000
                                                         0.426490       0.000000
                                                         0.136667       0.118446
                          1       4    5pz               2.232176       0.000000
                                                         1.378774       0.000000
                                                         0.426490       0.000000
                                                         0.136667       0.118446

                          2       1    3dx2              0.600000       0.673247
                          2       1    3dxy              0.600000       1.166097
                          2       1    3dxz              0.600000       1.166097
                          2       1    3dy2              0.600000       0.673247
                          2       1    3dyz              0.600000       1.166097
                          2       1    3dz2              0.600000       0.673247

     Potential information for                                        GTH-PBE-q7

       Description:                       Goedecker-Teter-Hutter pseudopotential
                                           Goedecker et al., PRB 54, 1703 (1996)
                                          Hartwigsen et al., PRB 58, 3641 (1998)
                                                      Krack, TCA 114, 145 (2005)

       Gaussian exponent of the core charge distribution:               2.974420
       Electronic configuration (s p d ...):                               2   5

       Parameters of the local part of the GTH pseudopotential:

                          rloc        C1          C2          C3          C4
                        0.410000   -6.392082

       Parameters of the non-local part of the GTH pseudopotential:

                   l      r(l)      h(i,j,l)

                   0    0.339539   15.218990   -4.934523
                                   -4.934523    6.370442
                   1    0.378474    4.338775


 MOLECULE KIND INFORMATION


 All atoms are their own molecule, skipping detailed information


 TOTAL NUMBERS AND MAXIMUM NUMBERS

  Total number of            - Atomic kinds:                                   2
                             - Atoms:                                          8
                             - Shell sets:                                    16
                             - Shells:                                        44
                             - Primitive Cartesian functions:                 48
                             - Cartesian basis functions:                    116
                             - Spherical basis functions:                    108

  Maximum angular momentum of- Orbital basis functions:                        2
                             - Local part of the GTH pseudopotential:          2
                             - Non-local part of the GTH pseudopotential:      2


 MODULE QUICKSTEP:  ATOMIC COORDINATES IN angstrom

  Atom  Kind  Element       X           Y           Z          Z(eff)       Mass

      1     1 Na   11    0.000000    0.000000    0.000000      9.00      22.9898
      2     1 Na   11    0.000000    2.000000    2.000000      9.00      22.9898
      3     1 Na   11    2.000000    0.000000    2.000000      9.00      22.9898
      4     1 Na   11    2.000000    2.000000    0.000000      9.00      22.9898
      5     2 Cl   17    2.000000    2.000000    2.000000      7.00      35.4530
      6     2 Cl   17    2.000000    0.000000    0.000000      7.00      35.4530
      7     2 Cl   17    0.000000    2.000000    0.000000      7.00      35.4530
      8     2 Cl   17    0.000000    0.000000    2.000000      7.00      35.4530




 SCF PARAMETERS         Density guess:                                    ATOMIC
                        --------------------------------------------------------
                        max_scf:                                              50
                        max_scf_history:                                       0
                        max_diis:                                              4
                        --------------------------------------------------------
                        eps_scf:                                        1.00E-05
                        eps_scf_history:                                0.00E+00
                        eps_diis:                                       1.00E-01
                        eps_eigval:                                     1.00E-05
                        --------------------------------------------------------
                        level_shift [a.u.]:                                 0.00
                        --------------------------------------------------------
                        Outer loop SCF in use 
                        No variables optimised in outer loop
                        eps_scf                                         1.00E-05
                        max_scf                                               20
                        No outer loop optimization
                        step_size                                       5.00E-01

 PW_GRID: Information for grid number                                          1
 PW_GRID: Grid distributed over                                    24 processors
 PW_GRID: Real space group dimensions                                    24    1
 PW_GRID: the grid is blocked:                                                NO
 PW_GRID: Cutoff [a.u.]                                                    160.0
 PW_GRID: spherical cutoff:                                                   NO
 PW_GRID:   Bounds   1            -22      22                Points:          45
 PW_GRID:   Bounds   2            -22      22                Points:          45
 PW_GRID:   Bounds   3            -22      22                Points:          45
 PW_GRID: Volume element (a.u.^3)  0.4740E-02     Volume (a.u.^3)       431.8934
 PW_GRID: Grid span                                                    FULLSPACE
 PW_GRID:   Distribution                         Average         Max         Min
 PW_GRID:   G-Vectors                             3796.9        3825        3780
 PW_GRID:   G-Rays                                  84.4          85          84
 PW_GRID:   Real Space Points                     3796.9        4050        2025

 PW_GRID: Information for grid number                                          2
 PW_GRID: Grid distributed over                                    24 processors
 PW_GRID: Real space group dimensions                                    24    1
 PW_GRID: the grid is blocked:                                                NO
 PW_GRID: Cutoff [a.u.]                                                     53.3
 PW_GRID: spherical cutoff:                                                   NO
 PW_GRID:   Bounds   1            -12      12                Points:          25
 PW_GRID:   Bounds   2            -12      12                Points:          25
 PW_GRID:   Bounds   3            -12      12                Points:          25
 PW_GRID: Volume element (a.u.^3)  0.2764E-01     Volume (a.u.^3)       431.8934
 PW_GRID: Grid span                                                    FULLSPACE
 PW_GRID:   Distribution                         Average         Max         Min
 PW_GRID:   G-Vectors                              651.0         825         500
 PW_GRID:   G-Rays                                  26.0          33          20
 PW_GRID:   Real Space Points                      651.0        1250         625

 PW_GRID: Information for grid number                                          3
 PW_GRID: Grid distributed over                                    24 processors
 PW_GRID: Real space group dimensions                                     4    6
 PW_GRID: the grid is blocked:                                                NO
 PW_GRID: Cutoff [a.u.]                                                     17.8
 PW_GRID: spherical cutoff:                                                   NO
 PW_GRID:   Bounds   1             -7       7                Points:          15
 PW_GRID:   Bounds   2             -7       7                Points:          15
 PW_GRID:   Bounds   3             -7       7                Points:          15
 PW_GRID: Volume element (a.u.^3)  0.1280         Volume (a.u.^3)       431.8934
 PW_GRID: Grid span                                                    FULLSPACE
 PW_GRID:   Distribution                         Average         Max         Min
 PW_GRID:   G-Vectors                              140.6         150         120
 PW_GRID:   G-Rays                                   9.4          10           8
 PW_GRID:   Real Space Points                      140.6         180          90

 PW_GRID: Information for grid number                                          4
 PW_GRID: Grid distributed over                                    24 processors
 PW_GRID: Real space group dimensions                                     4    6
 PW_GRID: the grid is blocked:                                                NO
 PW_GRID: Cutoff [a.u.]                                                      5.9
 PW_GRID: spherical cutoff:                                                   NO
 PW_GRID:   Bounds   1             -4       4                Points:           9
 PW_GRID:   Bounds   2             -4       4                Points:           9
 PW_GRID:   Bounds   3             -4       4                Points:           9
 PW_GRID: Volume element (a.u.^3)  0.5924         Volume (a.u.^3)       431.8934
 PW_GRID: Grid span                                                    FULLSPACE
 PW_GRID:   Distribution                         Average         Max         Min
 PW_GRID:   G-Vectors                               30.4          54           0
 PW_GRID:   G-Rays                                   3.4           6           0
 PW_GRID:   Real Space Points                       30.4          54          18

 RS_GRID: Information for grid number                                          1
 RS_GRID:   Bounds   1            -22      22                Points:          45
 RS_GRID:   Bounds   2            -22      22                Points:          45
 RS_GRID:   Bounds   3            -22      22                Points:          45
 RS_GRID: Real space fully replicated
 RS_GRID: Group size                                                           1

 RS_GRID: Information for grid number                                          2
 RS_GRID:   Bounds   1            -12      12                Points:          25
 RS_GRID:   Bounds   2            -12      12                Points:          25
 RS_GRID:   Bounds   3            -12      12                Points:          25
 RS_GRID: Real space fully replicated
 RS_GRID: Group size                                                           1

 RS_GRID: Information for grid number                                          3
 RS_GRID:   Bounds   1             -7       7                Points:          15
 RS_GRID:   Bounds   2             -7       7                Points:          15
 RS_GRID:   Bounds   3             -7       7                Points:          15
 RS_GRID: Real space fully replicated
 RS_GRID: Group size                                                           1

 RS_GRID: Information for grid number                                          4
 RS_GRID:   Bounds   1             -4       4                Points:           9
 RS_GRID:   Bounds   2             -4       4                Points:           9
 RS_GRID:   Bounds   3             -4       4                Points:           9
 RS_GRID: Real space fully replicated
 RS_GRID: Group size                                                           1


 DISTRIBUTION OF THE PARTICLES (ROWS)

  Process row   Number of particles      Number of matrix rows

            0                     2                         -1
            1                     2                         -1
            2                     2                         -1
            3                     2                         -1

          Sum                     8                         -1


 DISTRIBUTION OF THE PARTICLES (COLUMNS)

  Process col   Number of particles   Number of matrix columns

            0                     2                         -1
            1                     1                         -1
            2                     1                         -1
            3                     1                         -1
            4                     2                         -1
            5                     1                         -1

          Sum                     8                         -1

 MD| Molecular Dynamics Protocol 
 MD| Ensemble Type                                                         NPT_I
 MD| Number of Time Steps                                                  10000
 MD| Time Step [fs]                                                         0.50
 MD| Temperature [K]                                                      298.00
 MD| Temperature tolerance [K]                                              0.00
 MD| Pressure [Bar]                                                         1.00
 MD| Barostat time constant [  fs]                                        500.00
 MD| Print MD information every                                        1 step(s)
 MD| File type     Print frequency[steps]                             File names
 MD| Coordinates            1                     ./nacl-p1.1x1x1.298K-pos-1.xyz
 MD| Simulation Cel         1                          nacl-p1.1x1x1.298K-1.cell
 MD| Velocities             1                     ./nacl-p1.1x1x1.298K-vel-1.xyz
 MD| Energies               1                          nacl-p1.1x1x1.298K-1.ener
 MD| Dump                  20                       nacl-p1.1x1x1.298K-1.restart

 ROT| Rotational Analysis Info 
 ROT| Principal axes and moments of inertia in atomic units:
 ROT|                                1                 2                 3
 ROT| EIGENVALUES            0.304353719E+07   0.304353719E+07   0.304353719E+07
 ROT|      X                     1.000000000       0.000000000       0.000000000
 ROT|      Y                     0.000000000       1.000000000       0.000000000
 ROT|      Z                     0.000000000       0.000000000       1.000000000
 ROT| Numer of Rotovibrational vectors:     6

 Calculation of degrees of freedom
                                                      Number of atoms:         8
                                 Number of Intramolecular constraints:         0
                                 Number of Intermolecular constraints:         0
                                  Invariants(translation + rotations):         3
                                                   Degrees of freedom:        21


 Restraints Information
                                  Number of Intramolecular restraints:         0
                                  Number of Intermolecular restraints:         0

 THERMOSTAT| Thermostat Info for PARTICLES
 THERMOSTAT| Type of thermostat            Canonical Sampling/Velocity Rescaling
 THERMOSTAT| CSVR time constant [  fs]                                    100.00
 THERMOSTAT| Initial Kinetic Energy                                     0.000000
 THERMOSTAT| End of Thermostat Info for PARTICLES


 THERMOSTAT| Thermostat Info for BAROSTAT
 THERMOSTAT| Type of thermostat            Canonical Sampling/Velocity Rescaling
 THERMOSTAT| CSVR time constant [  fs]                                    100.00
 THERMOSTAT| Initial Kinetic Energy                                     0.000000
 THERMOSTAT| End of Thermostat Info for BAROSTAT

 ************************** Velocities initialization **************************
 Initial Temperature                                                    298.00 K
 COM velocity:            0.000000000000     -0.000000000000      0.000000000000
 *******************************************************************************


 DISTRIBUTION OF THE NEIGHBOR LISTS

  Total number of particle pairs:                         8304
  Total number of matrix elements:                     1557940
  Average number of particle pairs:                        346
  Maximum number of particle pairs:                       1262
  Average number of matrix element:                      64915
  Maximum number of matrix elements:                    247352


 DISTRIBUTION OF THE OVERLAP MATRIX

  Number  of non-zero blocks:                               36
  Percentage non-zero blocks:                           100.00
  Average number of blocks per CPU:                          2
  Maximum number of blocks per CPU:                          3
  Average number of matrix elements per CPU:               274
  Maximum number of matrix elements per CPU:               588

 Number of electrons:                                                         64
 Number of occupied orbitals:                                                 32
 Number of molecular orbitals:                                                32

 Number of orbital functions:                                                108
 Number of independent orbital functions:                                    108

 Extrapolation method: initial_guess

 Atomic guess: The first density matrix is obtained in terms of atomic orbitals
               and electronic configurations assigned to each atomic kind

 Guess for atomic kind: Na

 Electronic structure
    Total number of core electrons                                          2.00
    Total number of valence electrons                                       9.00
    Total number of electrons                                              11.00
    Multiplicity                                                   not specified
    S   [  2.00] 2.00  1.00
    P      6.00


 *******************************************************************************
                  Iteration          Convergence                     Energy [au]
 *******************************************************************************
                          1        0.468522                     -46.825991255966
                          2        0.293846E-01                 -46.868580049638
                          3        0.142201E-02                 -46.868731876440
                          4        0.525776E-05                 -46.868732233178
                          5        0.277366E-05                 -46.868732233181
                          6        0.188546E-05                 -46.868732233182
                          7        0.451583E-08                 -46.868732233183

 Energy components [Hartree]           Total Energy ::          -46.868732233183
                                        Band Energy ::           -9.797002496596
                                     Kinetic Energy ::           38.850102313938
                                   Potential Energy ::          -85.718834547121
                                      Virial (-V/T) ::            2.206399196956
                                        Core Energy ::          -79.182761981187
                                          XC Energy ::           -6.950988426524
                                     Coulomb Energy ::           39.265018174528
                       Total Pseudopotential Energy ::         -118.067130257140
                       Local Pseudopotential Energy ::         -111.662543867989
                    Nonlocal Pseudopotential Energy ::           -6.404586389151
                                        Confinement ::            0.342659620148

 Orbital energies  State     L     Occupation   Energy[a.u.]          Energy[eV]

                       1     0          2.000      -2.002482          -54.490311
                       2     0          1.000      -0.073875           -2.010234
                       3     0          0.000      32.521179          884.946287

                       1     1          6.000      -0.953027          -25.933190
                       2     1          0.000       0.021756            0.592017


 Guess for atomic kind: Cl

 Electronic structure
    Total number of core electrons                                         10.00
    Total number of valence electrons                                       7.00
    Total number of electrons                                              17.00
    Multiplicity                                                   not specified
    S   [  2.00  2.00] 2.00
    P   [  6.00] 5.00


 *******************************************************************************
                  Iteration          Convergence                     Energy [au]
 *******************************************************************************
                          1         1.44825                     -14.087506148058
                          2         1.23656                     -14.494469503760
                          3        0.383981E-02                 -14.773803346454
                          4        0.239086E-03                 -14.773808225790
                          5        0.133581E-03                 -14.773808238889
                          6        0.936318E-04                 -14.773808241913
                          7        0.736211E-07                 -14.773808244834

 Energy components [Hartree]           Total Energy ::          -14.773808244834
                                        Band Energy ::           -2.978932264506
                                     Kinetic Energy ::            5.573339851742
                                   Potential Energy ::          -20.347148096576
                                      Virial (-V/T) ::            3.650799814444
                                        Core Energy ::          -24.671545026313
                                          XC Energy ::           -2.740337345009
                                     Coulomb Energy ::           12.638074126488
                       Total Pseudopotential Energy ::          -30.304236641143
                       Local Pseudopotential Energy ::          -33.476180981698
                    Nonlocal Pseudopotential Energy ::            3.171944340555
                                        Confinement ::            0.593517630885

 Orbital energies  State     L     Occupation   Energy[a.u.]          Energy[eV]

                       1     0          2.000      -0.741969          -20.190003
                       2     0          0.000       0.660931           17.984850

                       1     1          5.000      -0.298999           -8.136172
                       2     1          0.000       0.385757           10.496978

 Re-scaling the density matrix to get the right number of electrons
                  # Electrons              Trace(P)               Scaling factor
                           64                75.889                        0.843


 SCF WAVEFUNCTION OPTIMIZATION

  ----------------------------------- OT ---------------------------------------

  Allowing for rotations:  F
  Optimizing orbital energies:  F
  Minimizer      : DIIS                : direct inversion
                                         in the iterative subspace
                            using      : -   7 DIIS vectors
                                         - safer DIIS on
  Preconditioner : FULL_ALL            : diagonalization, state selective
  Precond_solver : DEFAULT
  stepsize       :    0.15000000
  energy_gap     :    0.20000000

  eps_taylor     :   0.10000E-15
  max_taylor     :             4

  mixed_precision    : F

  ----------------------------------- OT ---------------------------------------

  Step     Update method      Time    Convergence         Total energy    Change
  ------------------------------------------------------------------------------

  Total electronic density (r-space):         -64.0000015482       -0.0000015482
  Total core charge density (r-space):         64.0000000000       -0.0000000000
  Total charge density (r-space):                                  -0.0000015482
  Total charge density (g-space):                                  -0.0000015482
     1 OT DIIS     0.15E+00    0.5     0.06771954      -245.5080794033 -2.46E+02

  Total electronic density (r-space):         -63.9999992906        0.0000007094
  Total core charge density (r-space):         64.0000000000       -0.0000000000
  Total charge density (r-space):                                   0.0000007093
  Total charge density (g-space):                                   0.0000007093
     2 OT DIIS     0.15E+00    0.8     0.02524294      -246.6686443747 -1.16E+00

  Total electronic density (r-space):         -63.9999997474        0.0000002526
  Total core charge density (r-space):         64.0000000000       -0.0000000000
  Total charge density (r-space):                                   0.0000002526
  Total charge density (g-space):                                   0.0000002526
     3 OT DIIS     0.15E+00    0.8     0.01018477      -246.7693976556 -1.01E-01

  Total electronic density (r-space):         -63.9999999769        0.0000000231
  Total core charge density (r-space):         64.0000000000       -0.0000000000
  Total charge density (r-space):                                   0.0000000230
  Total charge density (g-space):                                   0.0000000230
     4 OT DIIS     0.15E+00    0.8     0.00463943      -246.7850857812 -1.57E-02

  Total electronic density (r-space):         -63.9999999272        0.0000000728
  Total core charge density (r-space):         64.0000000000       -0.0000000000
  Total charge density (r-space):                                   0.0000000728
  Total charge density (g-space):                                   0.0000000728
     5 OT DIIS     0.15E+00    0.8     0.00073118      -246.7882348945 -3.15E-03

  Total electronic density (r-space):         -63.9999999153        0.0000000847
  Total core charge density (r-space):         64.0000000000       -0.0000000000
  Total charge density (r-space):                                   0.0000000847
  Total charge density (g-space):                                   0.0000000847
     6 OT DIIS     0.15E+00    0.8     0.00028854      -246.7884007391 -1.66E-04

  Total electronic density (r-space):         -63.9999999072        0.0000000928
  Total core charge density (r-space):         64.0000000000       -0.0000000000
  Total charge density (r-space):                                   0.0000000928
  Total charge density (g-space):                                   0.0000000928
     7 OT DIIS     0.15E+00    0.8     0.00011802      -246.7884254366 -2.47E-05

  Total electronic density (r-space):         -63.9999999046        0.0000000954
  Total core charge density (r-space):         64.0000000000       -0.0000000000
  Total charge density (r-space):                                   0.0000000953
  Total charge density (g-space):                                   0.0000000953
     8 OT DIIS     0.15E+00    0.8     0.00004938      -246.7884286726 -3.24E-06

  Total electronic density (r-space):         -63.9999999049        0.0000000951
  Total core charge density (r-space):         64.0000000000       -0.0000000000
  Total charge density (r-space):                                   0.0000000951
  Total charge density (g-space):                                   0.0000000951
     9 OT DIIS     0.15E+00    0.8     0.00001834      -246.7884291281 -4.56E-07

  Total electronic density (r-space):         -63.9999999048        0.0000000952
  Total core charge density (r-space):         64.0000000000       -0.0000000000
  Total charge density (r-space):                                   0.0000000952
  Total charge density (g-space):                                   0.0000000952
    10 OT DIIS     0.15E+00    0.8     0.00000908      -246.7884292431 -1.15E-07

  *** SCF run converged in    10 steps ***


  Total electronic density (r-space):         -63.9999999048        0.0000000952
  Total core charge density (r-space):         64.0000000000       -0.0000000000
  Total charge density (r-space):                                   0.0000000952
  Total charge density (g-space):                                   0.0000000952

  Overlap energy of the core charge distribution:               0.00000000000056
  Self energy of the core charge distribution:               -521.28103196716881
  Core Hamiltonian energy:                                    166.30212819806442
  Hartree energy:                                             151.20071432308609
  Exchange-correlation energy:                                -43.01023979708786

  Total energy:                                              -246.78842924310555

  outer SCF iter =    1 RMS gradient =   0.91E-05 energy =       -246.7884292431
  outer SCF loop converged in   1 iterations or   10 steps


  Total electronic density (r-space):         -63.9999999044        0.0000000956
  Total core charge density (r-space):         64.0000000000       -0.0000000000
  Total charge density (r-space):                                   0.0000000956
  Total charge density (g-space):                                   0.0000000956

 ENERGY| Total FORCE_EVAL ( QS ) energy (a.u.):             -246.788429295940119


 STRESS TENSOR [GPa]

            X               Y               Z
  X     410.29061041      0.00126476     -0.00251502
  Y       0.00126476    410.24343459      0.00119514
  Z      -0.00251502      0.00119514    410.25677059

  1/3 Trace(stress tensor):   4.10263605E+02

  Det(stress tensor)      :   6.90540213E+07


 EIGENVECTORS AND EIGENVALUES OF THE STRESS TENSOR

        410.24328147    410.25670873    410.29082538

         -0.03158873      0.07007510      0.99704144
          0.99506591      0.09607341      0.02477381
         -0.09405315      0.99290452     -0.07276418

 MD_ENERGIES| Initialization proceeding


 ******************************** GO CP2K GO! **********************************
 INITIAL POTENTIAL ENERGY[hartree]     =                     -0.246788429296E+03
 INITIAL KINETIC ENERGY[hartree]       =                      0.990896520914E-02
 INITIAL TEMPERATURE[K]                =                                 298.000
 INITIAL BAROSTAT TEMP[K]              =                      0.298000000000E+03
 INITIAL PRESSURE[bar]                 =                      0.410713610934E+07
 INITIAL VOLUME[bohr^3]                =                      0.431893413318E+03
 INITIAL CELL LNTHS[bohr]   =      0.7558905E+01   0.7558905E+01   0.7558905E+01
 INITIAL CELL ANGLS[deg]    =      0.9000000E+02   0.9000000E+02   0.9000000E+02
 ******************************** GO CP2K GO! **********************************

 -------------------------------------------------------------------------------
 ----                             MULTIGRID INFO                            ----
 -------------------------------------------------------------------------------
 count for grid        1:         108632          cutoff [a.u.]          160.00
 count for grid        2:          82788          cutoff [a.u.]           53.33
 count for grid        3:          48792          cutoff [a.u.]           17.78
 count for grid        4:          36884          cutoff [a.u.]            5.93
 total gridlevel count  :         277096

 PW_GRID: Information for grid number                                          5
 PW_GRID: Grid distributed over                                    24 processors
 PW_GRID: Real space group dimensions                                    24    1
 PW_GRID: the grid is blocked:                                                NO
 PW_GRID: Cutoff [a.u.]                                                    160.0
 PW_GRID: spherical cutoff:                                                   NO
 PW_GRID:   Bounds   1            -22      22                Points:          45
 PW_GRID:   Bounds   2            -22      22                Points:          45
 PW_GRID:   Bounds   3            -22      22                Points:          45
 PW_GRID: Volume element (a.u.^3)  0.4748E-02     Volume (a.u.^3)       432.6658
 PW_GRID: Grid span                                                    FULLSPACE
 PW_GRID:   Distribution                         Average         Max         Min
 PW_GRID:   G-Vectors                             3796.9        3825        3780
 PW_GRID:   G-Rays                                  84.4          85          84
 PW_GRID:   Real Space Points                     3796.9        4050        2025

 PW_GRID: Information for grid number                                          6
 PW_GRID: Grid distributed over                                    24 processors
 PW_GRID: Real space group dimensions                                    24    1
 PW_GRID: the grid is blocked:                                                NO
 PW_GRID: Cutoff [a.u.]                                                     53.3
 PW_GRID: spherical cutoff:                                                   NO
 PW_GRID:   Bounds   1            -12      12                Points:          25
 PW_GRID:   Bounds   2            -12      12                Points:          25
 PW_GRID:   Bounds   3            -12      12                Points:          25
 PW_GRID: Volume element (a.u.^3)  0.2769E-01     Volume (a.u.^3)       432.6658
 PW_GRID: Grid span                                                    FULLSPACE
 PW_GRID:   Distribution                         Average         Max         Min
 PW_GRID:   G-Vectors                              651.0         825         500
 PW_GRID:   G-Rays                                  26.0          33          20
 PW_GRID:   Real Space Points                      651.0        1250         625

 PW_GRID: Information for grid number                                          7
 PW_GRID: Grid distributed over                                    24 processors
 PW_GRID: Real space group dimensions                                     4    6
 PW_GRID: the grid is blocked:                                                NO
 PW_GRID: Cutoff [a.u.]                                                     17.8
 PW_GRID: spherical cutoff:                                                   NO
 PW_GRID:   Bounds   1             -7       7                Points:          15
 PW_GRID:   Bounds   2             -7       7                Points:          15
 PW_GRID:   Bounds   3             -7       7                Points:          15
 PW_GRID: Volume element (a.u.^3)  0.1282         Volume (a.u.^3)       432.6658
 PW_GRID: Grid span                                                    FULLSPACE
 PW_GRID:   Distribution                         Average         Max         Min
 PW_GRID:   G-Vectors                              140.6         150         120
 PW_GRID:   G-Rays                                   9.4          10           8
 PW_GRID:   Real Space Points                      140.6         180          90

 PW_GRID: Information for grid number                                          8
 PW_GRID: Grid distributed over                                    24 processors
 PW_GRID: Real space group dimensions                                     4    6
 PW_GRID: the grid is blocked:                                                NO
 PW_GRID: Cutoff [a.u.]                                                      5.9
 PW_GRID: spherical cutoff:                                                   NO
 PW_GRID:   Bounds   1             -4       4                Points:           9
 PW_GRID:   Bounds   2             -4       4                Points:           9
 PW_GRID:   Bounds   3             -4       4                Points:           9
 PW_GRID: Volume element (a.u.^3)  0.5935         Volume (a.u.^3)       432.6658
 PW_GRID: Grid span                                                    FULLSPACE
 PW_GRID:   Distribution                         Average         Max         Min
 PW_GRID:   G-Vectors                               30.4          54           0
 PW_GRID:   G-Rays                                   3.4           6           0
 PW_GRID:   Real Space Points                       30.4          54          18

 RS_GRID: Information for grid number                                          5
 RS_GRID:   Bounds   1            -22      22                Points:          45
 RS_GRID:   Bounds   2            -22      22                Points:          45
 RS_GRID:   Bounds   3            -22      22                Points:          45
 RS_GRID: Real space fully replicated
 RS_GRID: Group size                                                           1

 RS_GRID: Information for grid number                                          6
 RS_GRID:   Bounds   1            -12      12                Points:          25
 RS_GRID:   Bounds   2            -12      12                Points:          25
 RS_GRID:   Bounds   3            -12      12                Points:          25
 RS_GRID: Real space fully replicated
 RS_GRID: Group size                                                           1

 RS_GRID: Information for grid number                                          7
 RS_GRID:   Bounds   1             -7       7                Points:          15
 RS_GRID:   Bounds   2             -7       7                Points:          15
 RS_GRID:   Bounds   3             -7       7                Points:          15
 RS_GRID: Real space fully replicated
 RS_GRID: Group size                                                           1

 RS_GRID: Information for grid number                                          8
 RS_GRID:   Bounds   1             -4       4                Points:           9
 RS_GRID:   Bounds   2             -4       4                Points:           9
 RS_GRID:   Bounds   3             -4       4                Points:           9
 RS_GRID: Real space fully replicated
 RS_GRID: Group size                                                           1

 DISTRIBUTION OF THE NEIGHBOR LISTS

  Total number of particle pairs:                         8027
  Total number of matrix elements:                     1507526
  Average number of particle pairs:                        335
  Maximum number of particle pairs:                       1262
  Average number of matrix element:                      62814
  Maximum number of matrix elements:                    247352


 DISTRIBUTION OF THE OVERLAP MATRIX

  Number  of non-zero blocks:                               36
  Percentage non-zero blocks:                           100.00
  Average number of blocks per CPU:                          2
  Maximum number of blocks per CPU:                          3
  Average number of matrix elements per CPU:               274
  Maximum number of matrix elements per CPU:               588

 Number of electrons:                                                         64
 Number of occupied orbitals:                                                 32
 Number of molecular orbitals:                                                32

 Number of orbital functions:                                                108
 Number of independent orbital functions:                                    108

  Parameters for the always stable predictor-corrector (ASPC) method:

  ASPC order: 0

  B(1) =   1.000000

 Extrapolation method: ASPC


 SCF WAVEFUNCTION OPTIMIZATION

  ----------------------------------- OT ---------------------------------------

  Allowing for rotations:  F
  Optimizing orbital energies:  F
  Minimizer      : DIIS                : direct inversion
                                         in the iterative subspace
                            using      : -   7 DIIS vectors
                                         - safer DIIS on
  Preconditioner : FULL_ALL            : diagonalization, state selective
  Precond_solver : DEFAULT
  stepsize       :    0.15000000
  energy_gap     :    0.20000000

  eps_taylor     :   0.10000E-15
  max_taylor     :             4

  mixed_precision    : F

  ----------------------------------- OT ---------------------------------------

  Step     Update method      Time    Convergence         Total energy    Change
  ------------------------------------------------------------------------------

  Total electronic density (r-space):         -63.9999997597        0.0000002403
  Total core charge density (r-space):         64.0000000000       -0.0000000000
  Total charge density (r-space):                                   0.0000002403
  Total charge density (g-space):                                   0.0000002403
     1 OT DIIS     0.15E+00    0.4     0.00276281      -246.7959919245 -2.47E+02

  Total electronic density (r-space):         -63.9999998180        0.0000001820
  Total core charge density (r-space):         64.0000000000       -0.0000000000
  Total charge density (r-space):                                   0.0000001820
  Total charge density (g-space):                                   0.0000001820
     2 OT DIIS     0.15E+00    0.8     0.00107359      -246.7987226637 -2.73E-03

  Total electronic density (r-space):         -63.9999998448        0.0000001552
  Total core charge density (r-space):         64.0000000000       -0.0000000000
  Total charge density (r-space):                                   0.0000001552
  Total charge density (g-space):                                   0.0000001552
     3 OT DIIS     0.15E+00    0.8     0.00009362      -246.7992138572 -4.91E-04

  Total electronic density (r-space):         -63.9999998454        0.0000001546
  Total core charge density (r-space):         64.0000000000       -0.0000000000
  Total charge density (r-space):                                   0.0000001546
  Total charge density (g-space):                                   0.0000001546
     4 OT DIIS     0.15E+00    0.8     0.00003516      -246.7992158403 -1.98E-06

  Total electronic density (r-space):         -63.9999998453        0.0000001547
  Total core charge density (r-space):         64.0000000000       -0.0000000000
  Total charge density (r-space):                                   0.0000001547
  Total charge density (g-space):                                   0.0000001547
     5 OT DIIS     0.15E+00    0.8     0.00001066      -246.7992160561 -2.16E-07

  Total electronic density (r-space):         -63.9999998452        0.0000001548
  Total core charge density (r-space):         64.0000000000       -0.0000000000
  Total charge density (r-space):                                   0.0000001547
  Total charge density (g-space):                                   0.0000001547
     6 OT DIIS     0.15E+00    0.8     0.00000360      -246.7992160894 -3.33E-08

  *** SCF run converged in     6 steps ***


  Total electronic density (r-space):         -63.9999998452        0.0000001548
  Total core charge density (r-space):         64.0000000000       -0.0000000000
  Total charge density (r-space):                                   0.0000001547
  Total charge density (g-space):                                   0.0000001547

  Overlap energy of the core charge distribution:               0.00000000000054
  Self energy of the core charge distribution:               -521.28103196716881
  Core Hamiltonian energy:                                    166.25326749340798
  Hartree energy:                                             151.23098712708250
  Exchange-correlation energy:                                -43.00243874273301

  Total energy:                                              -246.79921608941078

  outer SCF iter =    1 RMS gradient =   0.36E-05 energy =       -246.7992160894
  outer SCF loop converged in   1 iterations or    6 steps


  Total electronic density (r-space):         -63.9999998452        0.0000001548
  Total core charge density (r-space):         64.0000000000       -0.0000000000
  Total charge density (r-space):                                   0.0000001548
  Total charge density (g-space):                                   0.0000001548

 ENERGY| Total FORCE_EVAL ( QS ) energy (a.u.):             -246.799216095798698


 STRESS TENSOR [GPa]

            X               Y               Z
  X     407.93168962      0.00067880      0.00110536
  Y       0.00067880    407.94439061      0.00272435
  Z       0.00110536      0.00272435    407.99139786

  1/3 Trace(stress tensor):   4.07955826E+02

  Det(stress tensor)      :   6.78952539E+07


 EIGENVECTORS AND EIGENVALUES OF THE STRESS TENSOR

        407.93163791    407.94426315    407.99157703

          0.99863304      0.04866240      0.01907934
         -0.04969321      0.99708467      0.05790287
         -0.01620603     -0.05877183      0.99813989

 Centre of mass motion (COM):                            x =        0.0000000267
                                                         y =        0.0000001562
                                                         z =        0.0000000207

 *******************************************************************************
 ENSEMBLE TYPE                =                                            NPT_I
 STEP NUMBER                  =                                                1
 TIME [FS]                    =                                         0.500000
 CONSERVED QNTY               =                              -0.246778065655E+03

                                         INSTANTANEOUS        AVERAGES
 CPU [S]                      =                       24.30                24.30
 {E-E0}/{k_b*N_at}            =         -0.974078209904E+07   0.000000000000E+00
 POTENTIAL ENERGY[hartree]    =         -0.246799216096E+03  -0.246799216096E+03
 KINETIC ENERGY[hartree]      =          0.988132302761E-02   0.988132302761E-02
 TEMPERATURE[K]               =                     297.169              297.169
 PRESSURE[bar]                =          0.408403775335E+07   0.408403775335E+07
 BAROSTAT TEMP[K]             =          0.698505128206E+04   0.698505128206E+04
 VOLUME[bohr^3]               =          0.432665792596E+03   0.432665792596E+03
 CELL LNTHS[bohr]             =    0.7563408E+01   0.7563408E+01   0.7563408E+01
 AVE. CELL LNTHS[bohr]        =    0.7563408E+01   0.7563408E+01   0.7563408E+01
 *******************************************************************************


 -------------------------------------------------------------------------------
 ----                             MULTIGRID INFO                            ----
 -------------------------------------------------------------------------------
 count for grid        1:         108632          cutoff [a.u.]          160.00
 count for grid        2:          82711          cutoff [a.u.]           53.33
 count for grid        3:          48792          cutoff [a.u.]           17.78
 count for grid        4:          36607          cutoff [a.u.]            5.93
 total gridlevel count  :         276742

 PW_GRID: Information for grid number                                          9
 PW_GRID: Grid distributed over                                    24 processors
 PW_GRID: Real space group dimensions                                    24    1
 PW_GRID: the grid is blocked:                                                NO
 PW_GRID: Cutoff [a.u.]                                                    160.0
 PW_GRID: spherical cutoff:                                                   NO
 PW_GRID:   Bounds   1            -22      22                Points:          45
 PW_GRID:   Bounds   2            -22      22                Points:          45
 PW_GRID:   Bounds   3            -22      22                Points:          45
 PW_GRID: Volume element (a.u.^3)  0.4768E-02     Volume (a.u.^3)       434.4468
 PW_GRID: Grid span                                                    FULLSPACE
 PW_GRID:   Distribution                         Average         Max         Min
 PW_GRID:   G-Vectors                             3796.9        3825        3780
 PW_GRID:   G-Rays                                  84.4          85          84
 PW_GRID:   Real Space Points                     3796.9        4050        2025

 PW_GRID: Information for grid number                                         10
 PW_GRID: Grid distributed over                                    24 processors
 PW_GRID: Real space group dimensions                                    24    1
 PW_GRID: the grid is blocked:                                                NO
 PW_GRID: Cutoff [a.u.]                                                     53.3
 PW_GRID: spherical cutoff:                                                   NO
 PW_GRID:   Bounds   1            -12      12                Points:          25
 PW_GRID:   Bounds   2            -12      12                Points:          25
 PW_GRID:   Bounds   3            -12      12                Points:          25
 PW_GRID: Volume element (a.u.^3)  0.2780E-01     Volume (a.u.^3)       434.4468
 PW_GRID: Grid span                                                    FULLSPACE
 PW_GRID:   Distribution                         Average         Max         Min
 PW_GRID:   G-Vectors                              651.0         825         500
 PW_GRID:   G-Rays                                  26.0          33          20
 PW_GRID:   Real Space Points                      651.0        1250         625

 PW_GRID: Information for grid number                                         11
 PW_GRID: Grid distributed over                                    24 processors
 PW_GRID: Real space group dimensions                                     4    6
 PW_GRID: the grid is blocked:                                                NO
 PW_GRID: Cutoff [a.u.]                                                     17.8
 PW_GRID: spherical cutoff:                                                   NO
 PW_GRID:   Bounds   1             -7       7                Points:          15
 PW_GRID:   Bounds   2             -7       7                Points:          15
 PW_GRID:   Bounds   3             -7       7                Points:          15
 PW_GRID: Volume element (a.u.^3)  0.1287         Volume (a.u.^3)       434.4468
 PW_GRID: Grid span                                                    FULLSPACE
 PW_GRID:   Distribution                         Average         Max         Min
 PW_GRID:   G-Vectors                              140.6         150         120
 PW_GRID:   G-Rays                                   9.4          10           8
 PW_GRID:   Real Space Points                      140.6         180          90

 PW_GRID: Information for grid number                                         12
 PW_GRID: Grid distributed over                                    24 processors
 PW_GRID: Real space group dimensions                                     4    6
 PW_GRID: the grid is blocked:                                                NO
 PW_GRID: Cutoff [a.u.]                                                      5.9
 PW_GRID: spherical cutoff:                                                   NO
 PW_GRID:   Bounds   1             -4       4                Points:           9
 PW_GRID:   Bounds   2             -4       4                Points:           9
 PW_GRID:   Bounds   3             -4       4                Points:           9
 PW_GRID: Volume element (a.u.^3)  0.5959         Volume (a.u.^3)       434.4468
 PW_GRID: Grid span                                                    FULLSPACE
 PW_GRID:   Distribution                         Average         Max         Min
 PW_GRID:   G-Vectors                               30.4          54           0
 PW_GRID:   G-Rays                                   3.4           6           0
 PW_GRID:   Real Space Points                       30.4          54          18

 RS_GRID: Information for grid number                                          9
 RS_GRID:   Bounds   1            -22      22                Points:          45
 RS_GRID:   Bounds   2            -22      22                Points:          45
 RS_GRID:   Bounds   3            -22      22                Points:          45
 RS_GRID: Real space fully replicated
 RS_GRID: Group size                                                           1

 RS_GRID: Information for grid number                                         10
 RS_GRID:   Bounds   1            -12      12                Points:          25
 RS_GRID:   Bounds   2            -12      12                Points:          25
 RS_GRID:   Bounds   3            -12      12                Points:          25
 RS_GRID: Real space fully replicated
 RS_GRID: Group size                                                           1

 RS_GRID: Information for grid number                                         11
 RS_GRID:   Bounds   1             -7       7                Points:          15
 RS_GRID:   Bounds   2             -7       7                Points:          15
 RS_GRID:   Bounds   3             -7       7                Points:          15
 RS_GRID: Real space fully replicated
 RS_GRID: Group size                                                           1

 RS_GRID: Information for grid number                                         12
 RS_GRID:   Bounds   1             -4       4                Points:           9
 RS_GRID:   Bounds   2             -4       4                Points:           9
 RS_GRID:   Bounds   3             -4       4                Points:           9
 RS_GRID: Real space fully replicated
 RS_GRID: Group size                                                           1

 DISTRIBUTION OF THE NEIGHBOR LISTS

  Total number of particle pairs:                         8016
  Total number of matrix elements:                     1505524
  Average number of particle pairs:                        334
  Maximum number of particle pairs:                       1262
  Average number of matrix element:                      62731
  Maximum number of matrix elements:                    247352


 DISTRIBUTION OF THE OVERLAP MATRIX

  Number  of non-zero blocks:                               36
  Percentage non-zero blocks:                           100.00
  Average number of blocks per CPU:                          2
  Maximum number of blocks per CPU:                          3
  Average number of matrix elements per CPU:               274
  Maximum number of matrix elements per CPU:               588

 Number of electrons:                                                         64
 Number of occupied orbitals:                                                 32
 Number of molecular orbitals:                                                32

 Number of orbital functions:                                                108
 Number of independent orbital functions:                                    108

  Parameters for the always stable predictor-corrector (ASPC) method:

  ASPC order: 0

  B(1) =   2.000000
  B(2) =  -1.000000

 Extrapolation method: ASPC


 SCF WAVEFUNCTION OPTIMIZATION

  ----------------------------------- OT ---------------------------------------

  Allowing for rotations:  F
  Optimizing orbital energies:  F
  Minimizer      : DIIS                : direct inversion
                                         in the iterative subspace
                            using      : -   7 DIIS vectors
                                         - safer DIIS on
  Preconditioner : FULL_ALL            : diagonalization, state selective
  Precond_solver : DEFAULT
  stepsize       :    0.15000000
  energy_gap     :    0.20000000

  eps_taylor     :   0.10000E-15
  max_taylor     :             4

  mixed_precision    : F

  ----------------------------------- OT ---------------------------------------

  Step     Update method      Time    Convergence         Total energy    Change
  ------------------------------------------------------------------------------

  Total electronic density (r-space):         -63.9999995366        0.0000004634
  Total core charge density (r-space):         64.0000000000       -0.0000000000
[...]
  Total charge density (g-space):                                  20.4782949305
    34 OT DIIS     0.15E+00    0.7     0.02542676      -410.4805993875 -4.22E-01

  Total electronic density (r-space):         -43.5377750567       20.4622249433
  Total core charge density (r-space):         64.0000000000       -0.0000000000
  Total charge density (r-space):                                  20.4622249433
  Total charge density (g-space):                                  20.4622249433
    35 OT DIIS     0.15E+00    0.7     0.02517482      -411.5905950710 -1.11E+00

  Total electronic density (r-space):         -43.5545456258       20.4454543742
  Total core charge density (r-space):         64.0000000000       -0.0000000000
  Total charge density (r-space):                                  20.4454543741
  Total charge density (g-space):                                  20.4454543741
    36 OT DIIS     0.15E+00    0.7     0.02474801      -413.8131104139 -2.22E+00

  Total electronic density (r-space):         -43.6106210646       20.3893789354
  Total core charge density (r-space):         64.0000000000       -0.0000000000
  Total charge density (r-space):                                  20.3893789353
  Total charge density (g-space):                                  20.3893789353
    37 OT DIIS     0.15E+00    0.7     0.02347672      -417.8083694976 -4.00E+00

  Total electronic density (r-space):         -43.6376239886       20.3623760114
  Total core charge density (r-space):         64.0000000000       -0.0000000000
  Total charge density (r-space):                                  20.3623760113
  Total charge density (g-space):                                  20.3623760113
    38 OT DIIS     0.15E+00    0.7     0.02320130      -419.9709831012 -2.16E+00

  Total electronic density (r-space):         -43.6550607387       20.3449392613
  Total core charge density (r-space):         64.0000000000       -0.0000000000
  Total charge density (r-space):                                  20.3449392613
  Total charge density (g-space):                                  20.3449392613
    39 OT DIIS     0.15E+00    0.7     0.02292809      -421.6535872947 -1.68E+00

  Total electronic density (r-space):         -43.6740756376       20.3259243624
  Total core charge density (r-space):         64.0000000000       -0.0000000000
  Total charge density (r-space):                                  20.3259243624
  Total charge density (g-space):                                  20.3259243624
    40 OT DIIS     0.15E+00    0.7     0.02240412      -423.4450368765 -1.79E+00

  Total electronic density (r-space):         -43.6896092069       20.3103907931
  Total core charge density (r-space):         64.0000000000       -0.0000000000
  Total charge density (r-space):                                  20.3103907931
  Total charge density (g-space):                                  20.3103907931
    41 OT DIIS     0.15E+00    0.7     0.02232869      -424.7606502931 -1.32E+00

  Total electronic density (r-space):         -43.6944108783       20.3055891217
  Total core charge density (r-space):         64.0000000000       -0.0000000000
  Total charge density (r-space):                                  20.3055891216
  Total charge density (g-space):                                  20.3055891216
    42 OT DIIS     0.15E+00    0.7     0.02209756      -425.5609343315 -8.00E-01

  Total electronic density (r-space):         -43.7004504854       20.2995495146
  Total core charge density (r-space):         64.0000000000       -0.0000000000
  Total charge density (r-space):                                  20.2995495146
  Total charge density (g-space):                                  20.2995495146
    43 OT DIIS     0.15E+00    0.7     0.02157841      -426.4763988917 -9.15E-01

  Total electronic density (r-space):         -43.7035664529       20.2964335471
  Total core charge density (r-space):         64.0000000000       -0.0000000000
  Total charge density (r-space):                                  20.2964335470
  Total charge density (g-space):                                  20.2964335470
    44 OT DIIS     0.15E+00    0.7     0.02145422      -427.0227005406 -5.46E-01

  Total electronic density (r-space):         -43.7118372588       20.2881627412
  Total core charge density (r-space):         64.0000000000       -0.0000000000
  Total charge density (r-space):                                  20.2881627412
  Total charge density (g-space):                                  20.2881627412
    45 OT DIIS     0.15E+00    0.7     0.02129700      -428.4307893913 -1.41E+00

  Total electronic density (r-space):         -43.7198550640       20.2801449360
  Total core charge density (r-space):         64.0000000000       -0.0000000000
  Total charge density (r-space):                                  20.2801449360
  Total charge density (g-space):                                  20.2801449360
    46 OT DIIS     0.15E+00    0.7     0.02116517      -430.0409671174 -1.61E+00

  Total electronic density (r-space):         -43.7270320878       20.2729679122
  Total core charge density (r-space):         64.0000000000       -0.0000000000
  Total charge density (r-space):                                  20.2729679122
  Total charge density (g-space):                                  20.2729679122
    47 OT DIIS     0.15E+00    0.7     0.02106980      -431.4199999558 -1.38E+00

  Total electronic density (r-space):         -43.7351082226       20.2648917774
  Total core charge density (r-space):         64.0000000000       -0.0000000000
  Total charge density (r-space):                                  20.2648917774
  Total charge density (g-space):                                  20.2648917774
    48 OT DIIS     0.15E+00    0.7     0.02083153      -433.1982034508 -1.78E+00

  Total electronic density (r-space):         -43.7384804817       20.2615195183
  Total core charge density (r-space):         64.0000000000       -0.0000000000
  Total charge density (r-space):                                  20.2615195182
  Total charge density (g-space):                                  20.2615195182
    49 OT DIIS     0.15E+00    0.7     0.02088695      -434.1809246153 -9.83E-01

  Total electronic density (r-space):         -43.7413784093       20.2586215907
  Total core charge density (r-space):         64.0000000000       -0.0000000000
  Total charge density (r-space):                                  20.2586215907
  Total charge density (g-space):                                  20.2586215907
    50 OT DIIS     0.15E+00    0.7     0.02087980      -435.1876688907 -1.01E+00

  *** SCF run NOT converged ***


  Total electronic density (r-space):         -43.7413784093       20.2586215907
  Total core charge density (r-space):         64.0000000000       -0.0000000000
  Total charge density (r-space):                                  20.2586215907
  Total charge density (g-space):                                  20.2586215907

  Overlap energy of the core charge distribution:               0.00000000000022
  Self energy of the core charge distribution:               -521.28103196716881
  Core Hamiltonian energy:                                    -69.93023202911718
  Hartree energy:                                             183.74643607832689
  Exchange-correlation energy:                                -27.72284097275263

  Total energy:                                              -435.18766889071151

  outer SCF iter =   21 RMS gradient =   0.21E-01 energy =       -435.1876688907
  outer SCF loop FAILED to converge after   21 iterations or 1050 steps


  Total electronic density (r-space):         -43.7442774230       20.2557225770
  Total core charge density (r-space):         64.0000000000       -0.0000000000
  Total charge density (r-space):                                  20.2557225770
  Total charge density (g-space):                                  20.2557225770

 ENERGY| Total FORCE_EVAL ( QS ) energy (a.u.):             -436.023426712455830


 STRESS TENSOR [GPa]

            X               Y               Z
  X  *************** *************** ***************
  Y  *************** *************** ***************
  Z  *************** *************** ***************

  1/3 Trace(stress tensor):  -1.05262427E+08

  Det(stress tensor)      :   1.09612393E+24


 EIGENVECTORS AND EIGENVALUES OF THE STRESS TENSOR

    ************************************************

         -0.02820466      0.99654498      0.07811919
          0.99886596      0.02509884      0.04045801
         -0.03835753     -0.07917170      0.99612275

 Centre of mass motion (COM):                            x =       -0.0000061106
                                                         y =        0.0000071384
                                                         z =       -0.0000041379

 *******************************************************************************
 ENSEMBLE TYPE                =                                            NPT_I
 STEP NUMBER                  =                                                6
 TIME [FS]                    =                                         3.000000
 CONSERVED QNTY               =                               0.273307939373E+09

                                         INSTANTANEOUS        AVERAGES
 CPU [S]                      =                      800.13               143.39
 {E-E0}/{k_b*N_at}            =          0.107879647906E+14   0.179798763781E+13
 POTENTIAL ENERGY[hartree]    =         -0.436023426712E+03  -0.278401723786E+03
 KINETIC ENERGY[hartree]      =          0.515834476960E+07   0.859724136845E+06
 TEMPERATURE[K]               =            155130905083.986      25855151105.318
 PRESSURE[bar]                =          0.118648889692E+13   0.197751397991E+12
 BAROSTAT TEMP[K]             =          0.168918990461E+15   0.281531651214E+14
 VOLUME[bohr^3]               =          0.451856622779E+03   0.440537044490E+03
 CELL LNTHS[bohr]             =    0.7673619E+01   0.7673619E+01   0.7673619E+01
 AVE. CELL LNTHS[bohr]        =    0.7608805E+01   0.7608805E+01   0.7608805E+01
 *******************************************************************************


 -------------------------------------------------------------------------------
 ----                             MULTIGRID INFO                            ----
 -------------------------------------------------------------------------------
 count for grid        1:         108346          cutoff [a.u.]          160.00
 count for grid        2:          82320          cutoff [a.u.]           53.33
 count for grid        3:          48681          cutoff [a.u.]           17.78
 count for grid        4:          35782          cutoff [a.u.]            5.93
 total gridlevel count  :         275129

 PW_GRID: Information for grid number                                         29
 PW_GRID: Grid distributed over                                    24 processors
 PW_GRID: Real space group dimensions                                     4    6
 PW_GRID: the grid is blocked:                                               YES
 PW_GRID: Cutoff [a.u.]                                                    160.0
 PW_GRID: spherical cutoff:                                                   NO
 PW_GRID:   Bounds   1             -1       0                Points:           2
 PW_GRID:   Bounds   2             -1       0                Points:           2
 PW_GRID:   Bounds   3             -1       0                Points:           2
 PW_GRID: Volume element (a.u.^3)   +Infinity     Volume (a.u.^3)      +Infinity
 PW_GRID: Grid span                                                    FULLSPACE
 PW_GRID:   Distribution                         Average         Max         Min
 PW_GRID:   G-Vectors                                0.3           2           0
 PW_GRID:   G-Rays                                   0.2           1           0
 PW_GRID:   Real Space Points                        0.3           2           0

 PW_GRID: Information for grid number                                         30
 PW_GRID: Grid distributed over                                    24 processors
 PW_GRID: Real space group dimensions                                     4    6
 PW_GRID: the grid is blocked:                                                NO
 PW_GRID: Cutoff [a.u.]                                                     53.3
 PW_GRID: spherical cutoff:                                                   NO
 PW_GRID:   Bounds   1             -1       0                Points:           2
 PW_GRID:   Bounds   2             -1       0                Points:           2
 PW_GRID:   Bounds   3             -1       0                Points:           2
 PW_GRID: Volume element (a.u.^3)   +Infinity     Volume (a.u.^3)      +Infinity
 PW_GRID: Grid span                                                    FULLSPACE
 PW_GRID:   Distribution                         Average         Max         Min
 PW_GRID:   G-Vectors                                0.3           4           0
 PW_GRID:   G-Rays                                   0.2           2           0
 PW_GRID:   Real Space Points                        0.3           2           0

 PW_GRID: Information for grid number                                         31
 PW_GRID: Grid distributed over                                    24 processors
 PW_GRID: Real space group dimensions                                     4    6
 PW_GRID: the grid is blocked:                                                NO
 PW_GRID: Cutoff [a.u.]                                                     17.8
 PW_GRID: spherical cutoff:                                                   NO
 PW_GRID:   Bounds   1             -1       0                Points:           2
 PW_GRID:   Bounds   2             -1       0                Points:           2
 PW_GRID:   Bounds   3             -1       0                Points:           2
 PW_GRID: Volume element (a.u.^3)   +Infinity     Volume (a.u.^3)      +Infinity
 PW_GRID: Grid span                                                    FULLSPACE
 PW_GRID:   Distribution                         Average         Max         Min
 PW_GRID:   G-Vectors                                0.3           4           0
 PW_GRID:   G-Rays                                   0.2           2           0
 PW_GRID:   Real Space Points                        0.3           2           0

 PW_GRID: Information for grid number                                         32
 PW_GRID: Grid distributed over                                    24 processors
 PW_GRID: Real space group dimensions                                     4    6
 PW_GRID: the grid is blocked:                                                NO
 PW_GRID: Cutoff [a.u.]                                                      5.9
 PW_GRID: spherical cutoff:                                                   NO
 PW_GRID:   Bounds   1             -1       0                Points:           2
 PW_GRID:   Bounds   2             -1       0                Points:           2
 PW_GRID:   Bounds   3             -1       0                Points:           2
 PW_GRID: Volume element (a.u.^3)   +Infinity     Volume (a.u.^3)      +Infinity
 PW_GRID: Grid span                                                    FULLSPACE
 PW_GRID:   Distribution                         Average         Max         Min
 PW_GRID:   G-Vectors                                0.3           4           0
 PW_GRID:   G-Rays                                   0.2           2           0
 PW_GRID:   Real Space Points                        0.3           2           0

 RS_GRID: Information for grid number                                         29
 RS_GRID:   Bounds   1             -1       0                Points:           2
 RS_GRID:   Bounds   2             -1       0                Points:           2
 RS_GRID:   Bounds   3             -1       0                Points:           2
 RS_GRID: Real space fully replicated
 RS_GRID: Group size                                                           1

 RS_GRID: Information for grid number                                         30
 RS_GRID:   Bounds   1             -1       0                Points:           2
 RS_GRID:   Bounds   2             -1       0                Points:           2
 RS_GRID:   Bounds   3             -1       0                Points:           2
 RS_GRID: Real space fully replicated
 RS_GRID: Group size                                                           1

 RS_GRID: Information for grid number                                         31
 RS_GRID:   Bounds   1             -1       0                Points:           2
 RS_GRID:   Bounds   2             -1       0                Points:           2
 RS_GRID:   Bounds   3             -1       0                Points:           2
 RS_GRID: Real space fully replicated
 RS_GRID: Group size                                                           1

 RS_GRID: Information for grid number                                         32
 RS_GRID:   Bounds   1             -1       0                Points:           2
 RS_GRID:   Bounds   2             -1       0                Points:           2
 RS_GRID:   Bounds   3             -1       0                Points:           2
 RS_GRID: Real space fully replicated
 RS_GRID: Group size                                                           1

 DISTRIBUTION OF THE NEIGHBOR LISTS

  Total number of particle pairs:                            0
  Total number of matrix elements:                           0
  Average number of particle pairs:                          0
  Maximum number of particle pairs:                          0
  Average number of matrix element:                          0
  Maximum number of matrix elements:                         0


 DISTRIBUTION OF THE OVERLAP MATRIX

  Number  of non-zero blocks:                                0
  Percentage non-zero blocks:                             0.00
  Average number of blocks per CPU:                          0
  Maximum number of blocks per CPU:                          0
  Average number of matrix elements per CPU:                 0
  Maximum number of matrix elements per CPU:                 0

 Number of electrons:                                                         64
 Number of occupied orbitals:                                                 32
 Number of molecular orbitals:                                                32

 Number of orbital functions:                                                108
 Number of independent orbital functions:                                    108

  Parameters for the always stable predictor-corrector (ASPC) method:

  ASPC order: 3

  B(1) =   3.000000
  B(2) =  -3.428571
  B(3) =   1.928571
  B(4) =  -0.571429
  B(5) =   0.071429
 *
 *** 23:19:19 ERRORL2 in cp_fm_cholesky:cp_fm_cholesky_decompose processor  ***
 ***      0  err=-300  condition FAILED at line 92                          ***
 *

 ===== Routine Calling Stack ===== 

           11 cp_fm_cholesky_decompose
           10 make_basis_sm
            9 qs_env_reorthogonalize_vectors
            8 wfi_extrapolate
            7 scf_env_initial_rho_setup
            6 init_scf_run
            5 qs_energies_scf
            4 qs_forces
            3 velocity_verlet
            2 qs_mol_dyn_low
            1 CP2K
 CP2K| condition FAILED at line 92
 CP2K| Abnormal program termination, stopped by process number 0
 CP2K| condition FAILED at line 92
 CP2K| Abnormal program termination, stopped by process number 2
 CP2K| condition FAILED at line 92
 CP2K| Abnormal program termination, stopped by process number 22
Application 19224259 exit codes: 134
Application 19224259 resources: utime ~859s, stime ~5s, Rss ~49652, inblocks ~36434, outblocks ~92339
